 Gaussian 09, Revision D.01,
 Gaussian 09:  ES64L-G09RevD.01 24-Apr-2013

 ----------------------------------------------------------------------
 #p opt=(calcfc,ts,modredundant,noeigentest) b3lyp/6-31g(d,p) empirical
 dispersion=gd3
 ----------------------------------------------------------------------

 -------------------
 Title Card Required
 -------------------
 Symbolic Z-matrix:
 Charge = -1 Multiplicity = 1

 SCF Done:  E(RB3LYP) =  -5464.79918419     A.U. after   18 cycles

  Exact polarizability:   0.000   0.000   0.000   0.000   0.000   0.000
 Approx polarizability:1713.534  -2.5151556.998  73.274 -58.7321643.937

 SCF Done:  E(RB3LYP) =  -5464.79918405     A.U. after    6 cycles
 Optimization completed.
    -- Stationary point found.

                         Standard orientation:
 ---------------------------------------------------------------------
 Center     Atomic      Atomic             Coordinates (Angstroms)
 Number     Number       Type             X           Y           Z
 ---------------------------------------------------------------------
      1          6           0        5.299929    0.253248    0.610233
      2          6           0        3.816869    0.635807    0.592381
      3          7           0        5.637421   -0.668568   -0.465309
      4          1           0        3.523172    0.919009   -0.422116
      5          8           0        3.014391   -0.458082    1.020203
      6          1           0        3.648873    1.485413    1.259404
      7          6           0        5.640458   -0.292635    2.011301
      8          1           0        5.889215    1.163362    0.462473
      9          6           0        6.859551   -0.624257   -1.089865
     10          1           0        5.152832   -1.562816   -0.484071
     11          7           0        6.222703   -1.513245    2.061168
     12          8           0        5.367302    0.368823    3.014242
     13          6           0        7.209643   -1.818717   -1.982913
     14          8           0        7.640478    0.313945   -0.957759
     15          6           0        6.469590   -2.198622    3.320612
     16          1           0        6.318525   -2.042821    1.204862
     17          6           0        6.052902   -2.480539   -2.749205
     18          1           0        7.968020   -1.441926   -2.673604
     19          1           0        7.690907   -2.568743   -1.344073
     20          6           0        6.155214   -3.697050    3.209692
     21          1           0        5.846589   -1.715171    4.076661
     22          1           0        7.515015   -2.058898    3.629615
     23          6           0        5.269343   -3.535491   -1.948672
     24          1           0        6.427452   -2.978351   -3.649058
     25          1           0        5.339412   -1.721645   -3.099411
     26          6           0        4.731878   -4.052889    2.730816
     27          1           0        6.328704   -4.148568    4.197113
     28          1           0        6.881120   -4.164147    2.528237
     29          8           0        4.558844   -4.345578   -2.624344
     30          8           0        5.371129   -3.519553   -0.689270
     31          6           0        3.647077   -3.391989    3.590963
     32          6           0        4.560096   -5.578367    2.690619
     33          1           0        4.625261   -3.683037    1.704512
     34          1           0        2.647328   -3.765802    3.353722
     35          1           0        3.807820   -3.597421    4.657391
     36          1           0        3.631749   -2.308336    3.450610
     37          1           0        5.372970   -6.058287    2.131819
     38          1           0        4.564195   -5.997337    3.705330
     39          1           0        3.621314   -5.869243    2.209451
     40          6           0        1.906596   -1.228476   -0.283415
     41          6           0        2.125824   -2.660822    0.147412
     42          8           0        0.697159   -0.715540    0.261850
     43          8           0        2.274644   -0.786913   -1.391153
     44          1           0        3.127930   -3.004621   -0.110113
     45          1           0        1.396143   -3.286950   -0.379681
     46          1           0        1.958816   -2.764679    1.218801
     47          6           0       -0.417829   -0.855834   -0.602834
     48          6           0       -0.798832    0.421114   -1.318941
     49          1           0       -0.232993   -1.624517   -1.363781
     50          1           0       -1.256530   -1.186041    0.024817
     51          6           0       -1.871811    0.397741   -2.222755
     52          6           0       -0.124024    1.622610   -1.099032
     53          6           0       -2.249017    1.551535   -2.914356
     54          1           0       -2.426590   -0.528156   -2.359572
     55          6           0       -0.497994    2.778321   -1.791275
     56          1           0        0.699367    1.643349   -0.394356
     57          6           0       -1.551016    2.747297   -2.705386
     58          1           0       -3.111545    1.531683   -3.578874
     59          1           0        0.040566    3.699513   -1.598358
     60          1           0       -1.840966    3.648541   -3.237621
     61          7           0        1.553082    0.287189    2.890732
     62          6           0        0.271935    0.519358    3.141562
     63          6           0        2.163368    0.077527    4.101315
     64          7           0        0.035202    0.474579    4.472611
     65          1           0       -0.485372    0.700669    2.396880
     66          6           0        1.234689    0.202629    5.100065
     67          1           0        3.218195   -0.143882    4.159299
     68          1           0       -0.880517    0.613699    4.953189
     69          6           0        1.365088   -0.118016    6.545329
     70          6           0        1.212781   -1.636463    6.737510
     71          1           0        2.349820    0.198594    6.906790
     72          1           0        0.609596    0.410475    7.138859
     73          7           0       -0.130163   -2.064560    6.417012
     74          1           0        1.900390   -2.177688    6.084768
     75          1           0        1.455239   -1.899814    7.778830
     76          6           0       -0.376546   -3.039332    5.503636
     77          1           0       -0.925302   -1.522334    6.771891
     78          6           0       -1.855582   -3.292543    5.268670
     79          8           0        0.505966   -3.674163    4.920043
     80          6           0       -2.367733   -2.797154    3.895598
     81          1           0       -2.448605   -2.822173    6.058248
     82          1           0       -2.006892   -4.377929    5.323120
     83          6           0       -1.741021   -3.579433    2.732340
     84          6           0       -3.910231   -2.867565    3.914881
     85          1           0       -2.083812   -1.739544    3.790167
     86          1           0       -2.017572   -3.149493    1.764001
     87          1           0       -2.078628   -4.623989    2.739638
     88          1           0       -0.652892   -3.585259    2.817389
     89          6           0       -4.580636   -2.669117    2.555936
     90          1           0       -4.275833   -2.119292    4.630078
     91          1           0       -4.210878   -3.846520    4.316806
     92          1           0       -4.219363   -1.765811    2.056711
     93          1           0       -5.668635   -2.575244    2.658595
     94          1           0       -4.383749   -3.514144    1.893604
     95          8           0        2.516097   -7.226175    0.316203
     96          6           0        1.659147   -6.520031   -0.563510
     97          1           0        3.433949   -7.030469    0.013153
     98          6           0        1.241622   -7.416375   -1.717561
     99          6           0        0.455404   -6.023995    0.239265
    100          1           0        2.188885   -5.643081   -0.973912
    101          1           0        0.826237   -8.349223   -1.319441
    102          1           0        0.477355   -6.950724   -2.350663
    103          1           0        2.102838   -7.673635   -2.343724
    104          1           0       -0.095464   -6.873536    0.658726
    105          1           0       -0.233433   -5.441261   -0.384686
    106          1           0        0.784839   -5.394684    1.069807
    107          7           0        2.411042   -2.757263   -3.202268
    108          6           0        1.315076   -2.772847   -3.926548
    109          1           0        2.466029   -2.042312   -2.451830
    110          1           0        3.173264   -3.451698   -3.262472
    111          6           0        1.190165   -3.809603   -5.017889
    112          8           0        0.339066   -1.995753   -3.702849
    113          6           0        0.312829   -4.946576   -4.488938
    114          1           0        2.171916   -4.187629   -5.317179
    115          1           0        0.733448   -3.332835   -5.894042
    116          1           0       -0.631453   -4.555644   -4.100212
    117          1           0        0.092630   -5.684923   -5.266363
    118          1           0        0.822036   -5.460068   -3.672189
    119          7           0       -1.395066   -0.974405   -5.254897
    120          6           0       -2.307926   -2.073605   -5.731187
    121          1           0       -0.951846   -0.459254   -6.022219
    122          1           0       -0.654162   -1.390376   -4.681617
    123          1           0       -1.859241   -0.284707   -4.655380
    124          6           0       -3.077961   -2.655691   -4.546036
    125          1           0       -2.963534   -1.675131   -6.509304
    126          1           0       -1.653565   -2.825396   -6.181587
    127          6           0       -3.547982   -4.104808   -4.719257
    128          1           0       -3.927074   -2.008067   -4.303782
    129          1           0       -2.414968   -2.640648   -3.673430
    130          6           0       -4.608393   -4.452421   -5.785380
    131          1           0       -3.941462   -4.406718   -3.743617
    132          1           0       -2.668414   -4.739879   -4.886860
    133          6           0       -5.087906   -5.879143   -5.505373
    134          1           0       -4.197581   -4.368914   -6.799959
    135          1           0       -5.451201   -3.750510   -5.721380
    136          1           0       -5.831751   -6.216029   -6.235176
    137          1           0       -4.250576   -6.585134   -5.533825
    138          1           0       -5.538504   -5.943504   -4.509396
    139          6           0       -5.095081   -3.203647   -0.682509
    140          6           0       -3.761673   -2.816956   -0.836035
    141          6           0       -5.480450   -4.544580   -0.812204
    142          1           0       -5.831112   -2.455375   -0.404615
    143          6           0       -2.783008   -3.768577   -1.127620
    144          1           0       -3.490414   -1.779170   -0.668888
    145          6           0       -6.917925   -4.971269   -0.596705
    146          6           0       -4.487149   -5.489129   -1.113800
    147          6           0       -3.152228   -5.109413   -1.267875
    148          1           0       -1.740830   -3.477305   -1.212741
    149          1           0       -6.969154   -5.941977   -0.094087
    150          1           0       -7.466631   -5.067520   -1.544766
    151          1           0       -7.455852   -4.244111    0.018357
    152          1           0       -4.759056   -6.538414   -1.201541
    153          1           0       -2.394883   -5.860508   -1.471428
    154          6           0       -3.001266    0.395591    6.619137
    155          6           0       -4.350493    1.000888    7.062219
    156          8           0       -2.397068    1.020508    5.668314
    157          8           0       -2.580178   -0.624802    7.194574
    158          1           0       -4.176775    1.998718    7.479096
    159          1           0       -4.850157    0.369826    7.811836
    160          1           0       -5.001662    1.131697    6.191687
    161          8           0        5.223513    3.634709   -0.458494
    162          6           0        4.444343    3.295888   -1.587555
    163          1           0        5.522157    4.554502   -0.596721
    164          6           0        5.189401    2.295840   -2.493099
    165          1           0        4.188402    4.187561   -2.170966
    166          1           0        3.496497    2.859000   -1.247688
    167          6           0        4.321154    1.927724   -3.682541
    168          1           0        5.473859    1.421030   -1.910870
    169          1           0        6.100609    2.764650   -2.871165
    170          7           0        3.553419    0.808801   -3.548367
    171          8           0        4.277749    2.629090   -4.702304
    172          6           0        2.605548    0.432407   -4.586774
    173          1           0        3.476960    0.338139   -2.651961
    174          6           0        1.228726    1.073505   -4.411180
    175          1           0        2.526517   -0.653866   -4.595149
    176          1           0        3.044431    0.753108   -5.535473
    177          1           0        1.321261    2.154086   -4.283235
    178          1           0        0.618683    0.906580   -5.311860
    179          1           0        0.715586    0.655731   -3.545780
    180          6           0        0.513128    5.265459    0.600331
    181          6           0       -0.106029    4.943077    1.806131
    182          6           0        1.888291    5.014909    0.394961
    183          1           0       -0.076456    5.712869   -0.196893
    184          6           0        0.685277    4.379427    2.813663
    185          1           0       -1.165310    5.127077    1.965918
    186          6           0        2.671714    4.443042    1.395095
    187          1           0        2.351928    5.292596   -0.547983
    188          7           0        0.351259    3.977069    4.084266
    189          6           0        2.079287    4.123989    2.629432
    190          1           0        3.720083    4.236708    1.203714
    191          6           0        1.482271    3.458538    4.688417
    192          1           0       -0.608377    3.889465    4.435490
    193          6           0        2.571135    3.531380    3.850148
    194          1           0        1.415517    3.035662    5.680487
    195          6           0        3.930426    2.927006    4.053075
    196          1           0        4.473077    2.882378    3.105751
    197          1           0        4.622095    3.388597    4.772432
    198          1           0        3.839730    1.888801    4.368934
    199          6           0       -5.221843    0.683210    2.907486
    200          6           0       -3.880396    1.015048    2.708353
    201          6           0       -6.101780    0.517204    1.828066
    202          1           0       -5.583047    0.523750    3.920173
    203          6           0       -3.401189    1.213838    1.408432
    204          1           0       -3.225294    1.085498    3.572469
    205          6           0       -7.540424    0.127260    2.074164
    206          6           0       -5.601703    0.702742    0.534143
    207          6           0       -4.266714    1.060356    0.323664
    208          1           0       -2.366096    1.493713    1.233421
    209          1           0       -7.601025   -0.872794    2.519902
    210          1           0       -8.140844    0.115533    1.152455
    211          1           0       -8.021995    0.820424    2.772726
    212          1           0       -6.266727    0.581199   -0.317225
    213          1           0       -3.902057    1.230598   -0.682706
    214          6           0       -5.519614   -0.143377   -2.994992
    215          6           0       -6.653989   -1.171718   -2.971826
    216          1           0       -5.869027    0.864171   -2.751194
    217          1           0       -5.053546   -0.092581   -3.987966
    218          1           0       -4.746206   -0.403330   -2.269986
    219          6           0       -7.687139   -1.012842   -4.096980
    220          1           0       -6.226205   -2.180758   -3.018862
    221          1           0       -7.170223   -1.114609   -2.003058
    222          6           0       -8.328269    0.383238   -4.105836
    223          6           0       -8.776926   -2.094902   -3.997782
    224          1           0       -7.159070   -1.149409   -5.054524
    225          1           0       -9.091084    0.461075   -4.888108
    226          1           0       -8.815996    0.587733   -3.144455
    227          1           0       -7.593321    1.174600   -4.279827
    228          1           0       -8.342267   -3.101149   -4.003910
    229          1           0       -9.344639   -1.984532   -3.065983
    230          1           0       -9.484914   -2.026525   -4.830587
    231          6           0        2.279638    5.322282   -4.018101
    232          6           0        3.517620    6.213340   -4.193259
    233          1           0        1.839167    5.423459   -3.020342
    234          1           0        1.509159    5.581073   -4.757178
    235          1           0        2.557351    4.276118   -4.167823
    236          6           0        4.202451    5.940661   -5.535999
    237          6           0        3.170928    7.713121   -4.026266
    238          1           0        4.225224    5.966415   -3.393688
    239          1           0        5.092171    6.568650   -5.665374
    240          1           0        3.522880    6.148911   -6.372813
    241          1           0        4.501987    4.890271   -5.586101
    242          6           0        2.683172    7.997008   -2.629936
    243          1           0        4.072818    8.314867   -4.189213
    244          1           0        2.436348    8.011849   -4.785509
    245          7           0        1.397135    8.395252   -2.523643
    246          8           0        3.393527    7.840540   -1.630312
    247          6           0        0.798685    8.635377   -1.230325
    248          1           0        0.854224    8.527393   -3.361264
    249          1           0        1.119435    7.863709   -0.526602
    250          1           0        1.091761    9.610147   -0.822835
    251          1           0       -0.289259    8.604371   -1.322280
    252          6           0       -7.324843    3.815246    0.532207
    253          6           0       -8.147610    4.782472   -0.046568
    254          6           0       -6.224348    4.194847    1.302520
    255          1           0       -7.535859    2.760791    0.385067
    256          6           0       -7.889627    6.149214    0.127073
    257          1           0       -9.002563    4.474294   -0.644779
    258          6           0       -5.962414    5.553538    1.491414
    259          1           0       -5.586374    3.437159    1.746871
    260          6           0       -8.753423    7.184673   -0.557406
    261          6           0       -6.787327    6.518739    0.909125
    262          1           0       -5.113922    5.863324    2.095199
    263          1           0       -8.337846    7.454321   -1.537098
    264          1           0       -8.844692    8.120509    0.017028
    265          1           0       -9.765224    6.804801   -0.732074
    266          1           0       -6.572468    7.573887    1.062658
    267          8           0        4.851188   -6.314082   -0.689547
    268          1           0        5.055696   -5.514021   -0.174778
    269          1           0        4.619808   -5.879802   -1.537866
    270          8           0        5.654538    6.261352   -1.246891
    271          1           0        6.165140    6.406077   -2.050981
    272          1           0        4.864553    6.834539   -1.338223
    273          8           0       -2.422603    3.548910    4.791435
    274          1           0       -2.854548    3.402065    3.940528
    275          1           0       -2.471257    2.656724    5.225982
    276          1           0        2.314225   -0.099244    1.778466
 ---------------------------------------------------------------------

 The electronic state is 1-A.
 Alpha  occ. eigenvalues --  -19.08134 -19.08047 -19.07525 -19.07388 -19.06325
 Alpha  occ. eigenvalues --  -19.04824 -19.04149 -19.04110 -19.03196 -19.02924
 Alpha  occ. eigenvalues --  -19.01985 -19.01837 -19.01734 -19.01648 -19.01489
 Alpha  occ. eigenvalues --  -19.01342 -19.00912 -19.00109 -14.42071 -14.32439
 Alpha  occ. eigenvalues --  -14.28461 -14.28172 -14.27454 -14.26266 -14.26072
 Alpha  occ. eigenvalues --  -14.25842 -14.24303 -14.24264 -10.24697 -10.24535
 Alpha  occ. eigenvalues --  -10.24445 -10.24327 -10.20277 -10.19686 -10.19538
 Alpha  occ. eigenvalues --  -10.19146 -10.18652 -10.17992 -10.17454 -10.17387
 Alpha  occ. eigenvalues --  -10.16989 -10.16547 -10.16163 -10.16160 -10.15976
 Alpha  occ. eigenvalues --  -10.15808 -10.15428 -10.15415 -10.15180 -10.15012
 Alpha  occ. eigenvalues --  -10.15001 -10.14871 -10.14749 -10.14738 -10.14702
 Alpha  occ. eigenvalues --  -10.14701 -10.14699 -10.14666 -10.14644 -10.14581
 Alpha  occ. eigenvalues --  -10.14571 -10.14563 -10.14532 -10.14529 -10.14514
 Alpha  occ. eigenvalues --  -10.14512 -10.14447 -10.14402 -10.14174 -10.13919
 Alpha  occ. eigenvalues --  -10.13867 -10.13805 -10.13801 -10.13758 -10.13738
 Alpha  occ. eigenvalues --  -10.13719 -10.13717 -10.13575 -10.13469 -10.13354
 Alpha  occ. eigenvalues --  -10.13283 -10.13134 -10.13107 -10.13029 -10.12975
 Alpha  occ. eigenvalues --  -10.12646 -10.12382 -10.12336 -10.12199 -10.11719
 Alpha  occ. eigenvalues --  -10.11704 -10.11410 -10.11313 -10.11035 -10.11003
 Alpha  occ. eigenvalues --  -10.10461 -10.10391 -10.10163 -10.09871 -10.09760
 Alpha  occ. eigenvalues --  -10.09721 -10.09628 -10.09525 -10.09511 -10.09217
 Alpha  occ. eigenvalues --  -10.09062 -10.09034 -10.08806 -10.08748 -10.08384
 Alpha  occ. eigenvalues --  -10.08300 -10.08270 -10.08193 -10.08162 -10.07634
 Alpha  occ. eigenvalues --  -10.07443 -10.06653 -10.06543 -10.06050  -0.99825
 Alpha  occ. eigenvalues --   -0.99364  -0.99186  -0.97584  -0.94873  -0.94680
 Alpha  occ. eigenvalues --   -0.94194  -0.93901  -0.93306  -0.93168  -0.92582
 Alpha  occ. eigenvalues --   -0.92123  -0.91739  -0.91402  -0.91276  -0.90502
 Alpha  occ. eigenvalues --   -0.89913  -0.88215  -0.88211  -0.86773  -0.86097
 Alpha  occ. eigenvalues --   -0.85329  -0.84506  -0.83605  -0.83330  -0.81438
 Alpha  occ. eigenvalues --   -0.81293  -0.81166  -0.80766  -0.80270  -0.79857
 Alpha  occ. eigenvalues --   -0.79249  -0.78112  -0.78049  -0.75918  -0.74479
 Alpha  occ. eigenvalues --   -0.74075  -0.73894  -0.72843  -0.72211  -0.72093
 Alpha  occ. eigenvalues --   -0.71755  -0.71628  -0.70632  -0.70556  -0.69975
 Alpha  occ. eigenvalues --   -0.69911  -0.69821  -0.69775  -0.69690  -0.69122
 Alpha  occ. eigenvalues --   -0.68814  -0.68688  -0.68601  -0.67506  -0.67436
 Alpha  occ. eigenvalues --   -0.66386  -0.66293  -0.65399  -0.65264  -0.65096
 Alpha  occ. eigenvalues --   -0.64401  -0.63734  -0.63553  -0.63526  -0.63261
 Alpha  occ. eigenvalues --   -0.63218  -0.63171  -0.63063  -0.62497  -0.62353
 Alpha  occ. eigenvalues --   -0.62065  -0.61390  -0.61144  -0.59973  -0.59927
 Alpha  occ. eigenvalues --   -0.59847  -0.57981  -0.57795  -0.57502  -0.57428
 Alpha  occ. eigenvalues --   -0.57371  -0.57132  -0.56118  -0.55794  -0.55771
 Alpha  occ. eigenvalues --   -0.55455  -0.55266  -0.54961  -0.54680  -0.54338
 Alpha  occ. eigenvalues --   -0.54096  -0.53925  -0.53510  -0.53425  -0.53201
 Alpha  occ. eigenvalues --   -0.52856  -0.52763  -0.52707  -0.52528  -0.52074
 Alpha  occ. eigenvalues --   -0.51883  -0.51375  -0.50040  -0.49669  -0.49250
 Alpha  occ. eigenvalues --   -0.49080  -0.49013  -0.48664  -0.48235  -0.48071
 Alpha  occ. eigenvalues --   -0.47269  -0.47239  -0.46698  -0.46587  -0.46455
 Alpha  occ. eigenvalues --   -0.46354  -0.46124  -0.45883  -0.45812  -0.45713
 Alpha  occ. eigenvalues --   -0.45513  -0.45481  -0.44835  -0.44194  -0.44137
 Alpha  occ. eigenvalues --   -0.43962  -0.43739  -0.43327  -0.43151  -0.43081
 Alpha  occ. eigenvalues --   -0.42983  -0.42718  -0.42425  -0.42248  -0.41781
 Alpha  occ. eigenvalues --   -0.41734  -0.41621  -0.41557  -0.41444  -0.41303
 Alpha  occ. eigenvalues --   -0.41143  -0.40968  -0.40770  -0.40706  -0.40516
 Alpha  occ. eigenvalues --   -0.40473  -0.40265  -0.40157  -0.40083  -0.39851
 Alpha  occ. eigenvalues --   -0.39707  -0.39685  -0.39655  -0.39417  -0.39388
 Alpha  occ. eigenvalues --   -0.39279  -0.38874  -0.38836  -0.38604  -0.38392
 Alpha  occ. eigenvalues --   -0.38236  -0.38054  -0.37973  -0.37879  -0.37775
 Alpha  occ. eigenvalues --   -0.37751  -0.37627  -0.37602  -0.37489  -0.37406
 Alpha  occ. eigenvalues --   -0.37343  -0.37280  -0.37214  -0.37165  -0.36911
 Alpha  occ. eigenvalues --   -0.36861  -0.36809  -0.36791  -0.36579  -0.36477
 Alpha  occ. eigenvalues --   -0.36381  -0.36167  -0.35956  -0.35802  -0.35686
 Alpha  occ. eigenvalues --   -0.35629  -0.35564  -0.35461  -0.35337  -0.35271
 Alpha  occ. eigenvalues --   -0.35205  -0.35155  -0.35021  -0.34910  -0.34876
 Alpha  occ. eigenvalues --   -0.34822  -0.34707  -0.34567  -0.34451  -0.34401
 Alpha  occ. eigenvalues --   -0.34114  -0.33997  -0.33980  -0.33907  -0.33826
 Alpha  occ. eigenvalues --   -0.33719  -0.33531  -0.33460  -0.33414  -0.33312
 Alpha  occ. eigenvalues --   -0.33250  -0.33159  -0.33066  -0.32895  -0.32853
 Alpha  occ. eigenvalues --   -0.32788  -0.32697  -0.32496  -0.32234  -0.32189
 Alpha  occ. eigenvalues --   -0.32166  -0.32079  -0.31957  -0.31823  -0.31747
 Alpha  occ. eigenvalues --   -0.31676  -0.31532  -0.31403  -0.31237  -0.31171
 Alpha  occ. eigenvalues --   -0.31087  -0.30821  -0.30746  -0.30607  -0.30496
 Alpha  occ. eigenvalues --   -0.30484  -0.30385  -0.30304  -0.30240  -0.30208
 Alpha  occ. eigenvalues --   -0.30111  -0.30079  -0.29984  -0.29889  -0.29778
 Alpha  occ. eigenvalues --   -0.29743  -0.29712  -0.29676  -0.29638  -0.29478
 Alpha  occ. eigenvalues --   -0.29312  -0.29256  -0.29186  -0.29110  -0.29003
 Alpha  occ. eigenvalues --   -0.28977  -0.28803  -0.28723  -0.28640  -0.28620
 Alpha  occ. eigenvalues --   -0.28384  -0.28252  -0.28202  -0.28028  -0.28007
 Alpha  occ. eigenvalues --   -0.27923  -0.27896  -0.27777  -0.27722  -0.27522
 Alpha  occ. eigenvalues --   -0.27436  -0.27369  -0.27277  -0.27149  -0.27101
 Alpha  occ. eigenvalues --   -0.27022  -0.26984  -0.26837  -0.26681  -0.26544
 Alpha  occ. eigenvalues --   -0.26484  -0.26113  -0.25925  -0.25864  -0.25429
 Alpha  occ. eigenvalues --   -0.25256  -0.25196  -0.24657  -0.23967  -0.23538
 Alpha  occ. eigenvalues --   -0.23417  -0.23196  -0.23149  -0.22917  -0.22506
 Alpha  occ. eigenvalues --   -0.22377  -0.22306  -0.21988  -0.21902  -0.21830
 Alpha  occ. eigenvalues --   -0.21534  -0.21513  -0.21306  -0.21178  -0.20886
 Alpha  occ. eigenvalues --   -0.20788  -0.20533  -0.20477  -0.19940  -0.19905
 Alpha  occ. eigenvalues --   -0.19873  -0.19528  -0.19458  -0.19322  -0.18972
 Alpha  occ. eigenvalues --   -0.18592  -0.18564  -0.18437  -0.18243  -0.18023
 Alpha  occ. eigenvalues --   -0.17871  -0.17712  -0.17199  -0.17153  -0.17125
 Alpha  occ. eigenvalues --   -0.16716  -0.16277  -0.16113  -0.15839  -0.15530
 Alpha  occ. eigenvalues --   -0.15169  -0.15012  -0.14861  -0.14586  -0.13861
 Alpha  occ. eigenvalues --   -0.13714  -0.12824  -0.12191  -0.09677
 Alpha virt. eigenvalues --    0.03400   0.03490   0.03660   0.03956   0.04712
 Alpha virt. eigenvalues --    0.04962   0.05051   0.05114   0.05526   0.06019
 Alpha virt. eigenvalues --    0.06639   0.07200   0.08322   0.09104   0.09414

 Mulliken charges:
               1
     1  C   -0.031643
     2  C    0.044596
     3  N   -0.564358
     4  H    0.094833
     5  O   -0.617981
     6  H    0.141807
     7  C    0.624617
     8  H    0.178652
     9  C    0.559833
    10  H    0.287691
    11  N   -0.536263
    12  O   -0.553678
    13  C   -0.241508
    14  O   -0.531576
    15  C   -0.029764
    16  H    0.276625
    17  C   -0.278442
    18  H    0.105769
    19  H    0.129195
    20  C   -0.194255
    21  H    0.130907
    22  H    0.089965
    23  C    0.604237
    24  H    0.106334
    25  H    0.119499
    26  C   -0.071983
    27  H    0.079095
    28  H    0.084139
    29  O   -0.641577
    30  O   -0.586791
    31  C   -0.324843
    32  C   -0.326365
    33  H    0.115808
    34  H    0.133397
    35  H    0.079382
    36  H    0.109392
    37  H    0.085907
    38  H    0.077882
    39  H    0.128844
    40  C    0.648557
    41  C   -0.357978
    42  O   -0.515806
    43  O   -0.581903
    44  H    0.154904
    45  H    0.100622
    46  H    0.148659
    47  C   -0.007794
    48  C    0.104202
    49  H    0.132288
    50  H    0.125649
    51  C   -0.156729
    52  C   -0.111730
    53  C   -0.130640
    54  H    0.071896
    55  C   -0.077054
    56  H    0.143629
    57  C   -0.083408
    58  H    0.070041
    59  H    0.109205
    60  H    0.075649
    61  N   -0.573744
    62  C    0.315710
    63  C    0.030919
    64  N   -0.552929
    65  H    0.112578
    66  C    0.271830
    67  H    0.137546
    68  H    0.325588
    69  C   -0.263417
    70  C   -0.034368
    71  H    0.105287
    72  H    0.116301
    73  N   -0.546847
    74  H    0.152647
    75  H    0.081170
    76  C    0.569444
    77  H    0.301316
    78  C   -0.260376
    79  O   -0.543799
    80  C   -0.050215
    81  H    0.120327
    82  H    0.095224
    83  C   -0.324556
    84  C   -0.172338
    85  H    0.092001
    86  H    0.082223
    87  H    0.083596
    88  H    0.145578
    89  C   -0.328736
    90  H    0.094718
    91  H    0.074070
    92  H    0.112999
    93  H    0.068262
    94  H    0.110259
    95  O   -0.580385
    96  C    0.159819
    97  H    0.348422
    98  C   -0.307587
    99  C   -0.310952
   100  H    0.074226
   101  H    0.094494
   102  H    0.060967
   103  H    0.095991
   104  H    0.093036
   105  H    0.065206
   106  H    0.134516
   107  N   -0.625560
   108  C    0.570917
   109  H    0.356179
   110  H    0.327662
   111  C   -0.236427
   112  O   -0.616730
   113  C   -0.342260
   114  H    0.131142
   115  H    0.075170
   116  H    0.117296
   117  H    0.101083
   118  H    0.160389
   119  N   -0.576311
   120  C   -0.103194
   121  H    0.319020
   122  H    0.407780
   123  H    0.321003
   124  C   -0.229761
   125  H    0.139098
   126  H    0.149391
   127  C   -0.194392
   128  H    0.125082
   129  H    0.147074
   130  C   -0.186142
   131  H    0.139340
   132  H    0.101319
   133  C   -0.318599
   134  H    0.085596
   135  H    0.096720
   136  H    0.096385
   137  H    0.109836
   138  H    0.116761
   139  C   -0.127099
   140  C   -0.093562
   141  C    0.124793
   142  H    0.091029
   143  C   -0.105002
   144  H    0.104808
   145  C   -0.381081
   146  C   -0.127463
   147  C   -0.091714
   148  H    0.105078
   149  H    0.119965
   150  H    0.114193
   151  H    0.117339
   152  H    0.077468
   153  H    0.103185
   154  C    0.570551
   155  C   -0.387705
   156  O   -0.612552
   157  O   -0.546125
   158  H    0.117824
   159  H    0.104855
   160  H    0.104692
   161  O   -0.562446
   162  C    0.048371
   163  H    0.347383
   164  C   -0.256537
   165  H    0.093957
   166  H    0.093567
   167  C    0.556902
   168  H    0.138971
   169  H    0.112012
   170  N   -0.533010
   171  O   -0.555251
   172  C   -0.036820
   173  H    0.311000
   174  C   -0.322682
   175  H    0.093268
   176  H    0.114623
   177  H    0.125924
   178  H    0.013846
   179  H    0.153176
   180  C   -0.125282
   181  C   -0.114613
   182  C   -0.126040
   183  H    0.040655
   184  C    0.269777
   185  H    0.058262
   186  C   -0.161816
   187  H    0.069307
   188  N   -0.622741
   189  C    0.051210
   190  H    0.113786
   191  C    0.054967
   192  H    0.286350
   193  C    0.048705
   194  H    0.088826
   195  C   -0.377996
   196  H    0.129344
   197  H    0.080485
   198  H    0.131066
   199  C   -0.127922
   200  C   -0.110717
   201  C    0.130032
   202  H    0.089791
   203  C   -0.118916
   204  H    0.127787
   205  C   -0.382795
   206  C   -0.135201
   207  C   -0.091254
   208  H    0.106564
   209  H    0.126535
   210  H    0.093889
   211  H    0.123874
   212  H    0.067024
   213  H    0.092035
   214  C   -0.327588
   215  C   -0.177504
   216  H    0.115702
   217  H    0.069839
   218  H    0.125881
   219  C   -0.051304
   220  H    0.102647
   221  H    0.094870
   222  C   -0.309226
   223  C   -0.310856
   224  H    0.071304
   225  H    0.094377
   226  H    0.101592
   227  H    0.101067
   228  H    0.097989
   229  H    0.102138
   230  H    0.094563
   231  C   -0.343945
   232  C   -0.059196
   233  H    0.108870
   234  H    0.068212
   235  H    0.157224
   236  C   -0.328716
   237  C   -0.237382
   238  H    0.094761
   239  H    0.077564
   240  H    0.078227
   241  H    0.162708
   242  C    0.599089
   243  H    0.114088
   244  H    0.074177
   245  N   -0.511729
   246  O   -0.548820
   247  C   -0.178701
   248  H    0.261352
   249  H    0.179490
   250  H    0.122468
   251  H    0.102921
   252  C   -0.084926
   253  C   -0.124194
   254  C   -0.089175
   255  H    0.076682
   256  C    0.125642
   257  H    0.062657
   258  C   -0.090954
   259  H    0.107437
   260  C   -0.379721
   261  C   -0.121385
   262  H    0.092764
   263  H    0.118778
   264  H    0.108774
   265  H    0.106386
   266  H    0.069859
   267  O   -0.675895
   268  H    0.330567
   269  H    0.333769
   270  O   -0.643233
   271  H    0.305167
   272  H    0.360563
   273  O   -0.663456
   274  H    0.294029
   275  H    0.351278
   276  H    0.475201
 Sum of Mulliken charges =  -1.00000

 Dipole moment (field-independent basis, Debye):
    X=            -23.6213    Y=              6.1292    Z=            -25.5312  Tot=             35.3182
 Quadrupole moment (field-independent basis, Debye-Ang):
   XX=           -851.3171   YY=           -831.3671   ZZ=           -763.5389
   XY=             27.6434   XZ=             51.5948   YZ=              0.8887

 Normal termination of Gaussian 09 at Wed Jun 28 09:14:19 2017.
